; generated by mdp_builder.py
integrator = md
dt = 0.002
nsteps = 300000
continuation = no
gen-vel = yes
gen-temp = 298.15
constraints = h-bonds
lincs-order = 4
lincs-iter = 1
coulombtype = PME
cutoff-scheme = Verlet
pbc = xyz
tcoupl = Nose-Hoover
tc-grps = System
tau-t = 1.0
ref-t = 298.15
annealing = single
annealing-npoints = 6
annealing-time = 0 100 200 350 500 600
annealing-temp = 298.15 298.15 350 350 298.15 298.15
nstxout-compressed = 1000
nstenergy = 1000
nstlog = 5000
