; generated by mdp_builder.py
integrator = md
dt = 0.002
nsteps = 2500000
continuation = yes
gen-vel = no
constraints = h-bonds
lincs-order = 4
lincs-iter = 1
coulombtype = PME
cutoff-scheme = Verlet
pbc = xyz
tcoupl = Nose-Hoover
tc-grps = System
tau-t = 1.0
ref-t = 298.15
pcoupl = C-rescale
pcoupltype = isotropic
tau-p = 5.0
ref-p = 1.0
compressibility = 4.5e-5
nstxout-compressed = 1000
nstenergy = 1000
nstlog = 5000
